5
Lattice="3.909437 0.0 0.0 0.0 3.909437 0.0 0.0 0.0 3.909437" Properties=species:S:1:pos:R:3 bader="8.411193 2.167654 6.807051 6.807051 6.807051" energy=-24.85822204 pbc="T T T"
Sr       0.00000000       0.00000000       0.00000000
Li       1.95471850       1.95471850       1.95471850
O        1.95471850       1.95471850       0.00000000
O        1.95471850       0.00000000       1.95471850
O        0.00000000       1.95471850       1.95471850
92
Lattice="7.887587 0.0 0.0 0.0 12.013686 0.0 0.0 8.011196 12.274312" Properties=species:S:1:pos:R:3 bader="2.525223 2.525223 2.525223 2.525223 0.848451 0.848451 0.848451 0.848451 0.0 0.0 0.0 0.0 0.856697 0.856697 0.856697 0.856697 0.878376 0.878376 0.878376 0.878376 3.324024 3.324024 3.324024 3.324024 0.0 0.0 0.0 0.0 2.022222 2.022222 2.022222 2.022222 1.016093 1.016068 1.016068 1.016093 2.022036 2.022036 2.022036 2.022036 2.038943 2.038943 2.038943 2.038943 2.089981 2.089981 2.089981 2.089981 1.981932 1.981932 1.981932 1.981932 1.919214 1.919215 1.919215 1.919214 1.932088 1.932088 1.932088 1.932088 2.083163 2.083163 2.083163 2.083163 2.131348 2.131348 2.131348 2.131348 2.050783 2.050783 2.050783 2.050783 0.989919 0.989919 0.989919 0.989919 1.85833 1.85833 1.85833 1.85833 1.347078 1.347078 1.347078 1.347078 2.140014 2.140014 2.140014 2.140014 1.944099 1.944099 1.944099 1.944099" energy=-390.17579814 pbc="T T T"
Be       4.11859032       5.20008685       2.72159547
Be       7.71279018       9.20568485       8.85875147
Be       3.76899668      14.82479515       9.55271653
Be       0.17479682      10.81919715       3.41556053
B        5.68019056       4.32584873       3.53894191
B        6.15118994       8.33144673       9.67609791
B        2.20739644      15.69903327       8.73537009
B        1.73639706      11.69343527       2.59821409
B        5.72942488       2.84481327       2.49358785
B        6.10195562       6.85041127       8.63074385
B        2.15816212      17.18006873       9.78072415
B        1.78563138      13.17447073       3.64356815
B        5.72993758       4.52771989       1.79051526
B        6.10144292       8.53331789       7.92767126
B        2.15764942      15.49716211      10.48379674
B        1.78614408      11.49156411       4.34664074
B        2.29743324       5.53734195       2.78623200
B        1.64636026       9.54293995       8.92338800
B        5.59015376      14.48754005       9.48808000
B        6.24122674      10.48194205       3.35092400
B        2.14834996       6.26409146       4.52747818
B        1.79544354      10.26968946      10.66463418
B        5.73923704      13.76079054       7.74683382
B        6.09214346       9.75519254       1.60967782
B        3.28545605       6.77352583       3.61429391
B        0.65833745      10.77912383       9.75144991
B        4.60213095      13.25135617       8.66001809
B        7.22924955       9.24575817       2.52286209
H        6.61881342       4.76931786       4.13159479
H        5.21256708       8.77491586      10.26875079
H        1.26877358      15.25556414       8.14271721
H        2.67501992      11.24996614       2.00556121
H        7.38940701       0.97728987       0.64373857
H        4.44197349       4.98288787       6.78089457
H        0.49817999      19.04759213      11.63057343
H        3.44561351      15.04199413       5.49341743
H        6.68512436       5.12577430       1.39379722
H        5.14625614       9.13137230       7.53095322
H        1.20246264      14.89910770      10.88051478
H        2.74133086      10.89350970       4.74335878
H        4.75883364       2.15105055       2.34893509
H        7.07254686       6.15664855       8.48609109
H        3.12875336      17.87383145       9.92537691
H        0.81504014      13.86823345       3.78822091
H        5.54724529       3.10944373       3.87536853
H        6.28413521       7.11504173      10.01252453
H        2.34034171      16.91543827       8.39894347
H        1.60345179      12.90984027       2.26178747
H        5.72654591       3.41394841       1.18161119
H        6.10483459       7.41954641       7.31876719
H        2.16104109      16.61093359      11.09270081
H        1.78275241      12.60533559       4.95554481
H        4.66572856       4.97931667       1.28238329
H        7.16565194       8.98491467       7.41953929
H        3.22185844      15.04556533      10.99192871
H        0.72193506      11.03996733       4.85477271
H        4.61860023       4.69035618       4.08575024
H        7.21278027       8.69595418      10.22290624
H        3.26898677      15.33452582       8.18856176
H        0.67480673      11.32892782       2.05140576
H        1.57728077       5.74451514       1.84433812
H        2.36651273       9.75011314       7.98149412
H        6.31030623      14.28036686      10.42997388
H        5.52107427      10.27476886       4.29281788
H        6.39836325      13.72039799       6.75918131
H        5.43301725       9.71479999       0.62202531
H        1.48922375       6.30448401       5.51513069
H        2.45456975      10.31008201      11.65228669
H        2.85917141      13.70219755       3.62956316
H        1.08462209      17.70779555       9.76671916
H        5.02841559       6.32268445       8.64474884
H        6.80296491       2.31708645       2.50759284
H        3.02384057      14.75694145       6.03939110
H        0.91995293      18.76253945      12.17654710
H        4.86374643       5.26794055       6.23492090
H        6.96763407       1.26234255       0.09776490
H        1.41173610       5.39448888       3.76876613
H        2.53205740       9.40008688       9.90592213
H        6.47585090      14.63039312       8.50554587
H        5.35552960      10.62479512       2.36838987
H        2.14180326       7.45265264       3.81086702
H        1.80199024      11.45825064       9.94802302
H        5.74578374      12.57222936       8.46344498
H        6.08559676       8.56663136       2.32628898
H        4.22631898       7.49886585       3.52955206
H        7.60506152      11.50446385       9.66670806
H        3.66126802      12.52601615       8.74475994
H        0.28252548       8.52041815       2.60760394
H        2.81416484       4.37794005       2.70852333
H        1.12962866       8.38353805       8.84567933
H        5.07342216      15.64694195       9.56578867
H        6.75795834      11.64134395       3.42863267
15
Lattice="6.405082 0.0 0.0 0.0 6.405082 0.0 0.0 0.0 6.405082" Properties=species:S:1:pos:R:3 bader="7.466053 7.466053 7.466053 13.589816 13.106333 13.106333 13.106333 13.166592 13.136457 13.136457 13.136457 13.07621 15.013616 15.013616 15.013616" energy=-77.53979608 pbc="T T T"
Er       3.20254100       3.20254100       0.00000000
Er       3.20254100       0.00000000       3.20254100
Er       0.00000000       3.20254100       3.20254100
Ga       3.20254100       3.20254100       3.20254100
Ga       1.35404074       1.35404074       5.05104126
Ga       1.35404074       5.05104126       1.35404074
Ga       5.05104126       1.35404074       1.35404074
Ga       5.05104126       5.05104126       5.05104126
Ga       5.05104126       5.05104126       1.35404074
Ga       5.05104126       1.35404074       5.05104126
Ga       1.35404074       5.05104126       5.05104126
Ga       1.35404074       1.35404074       1.35404074
Ru       0.00000000       0.00000000       3.20254100
Ru       0.00000000       3.20254100       0.00000000
Ru       3.20254100       0.00000000       0.00000000
71
Lattice="20.268054 3.711608 0.0 -20.268054 3.711608 0.0 0.0 0.257334 7.308781" Properties=species:S:1:pos:R:3 bader="8.102057 8.102057 6.107008 6.108684 6.093564 6.093564 6.097849 6.097849 10.612237 10.612237 10.64221 10.64221 0.0 0.0 0.0 0.0 0.0 0.0 0.0 0.0 0.0 0.0 0.0 0.0 0.0 0.0 8.006531 7.999459 7.999459 7.690106 7.690106 7.993481 7.993481 8.012184 7.563303 7.563303 8.00372 8.00372 7.776226 7.776226 7.477644 7.477644 8.00262 8.00262 8.011969 8.011969 7.74679 7.74679 7.766034 7.766034 8.008464 8.008464 8.007907 8.007907 7.776109 7.776109 7.752667 7.752667 8.00828 8.00828 8.010632 8.010632 6.15049 6.15049 6.042974 6.042974 5.994049 5.994049 6.361979 6.361979 6.379956" energy=-454.51101375 pbc="T T T"
K       -4.67853571       3.59959498       3.11674195
K        4.67853571       3.59959498       3.11674195
Na      -0.00000000       0.92613685       1.58783267
Na      -0.00000000       1.31933192       5.85242599
Na     -10.17113781       3.93521181       6.04833786
Na      10.17113781       3.93521181       6.04833786
Na     -14.94404158       3.68109522       4.16618789
Na      14.94404158       3.68109522       4.16618789
Zn     -17.68610660       3.64943322       0.07848900
Zn      17.68610660       3.64943322       0.07848900
Zn       7.44149710       2.05534714       4.89175251
Zn      -7.44149710       2.05534714       4.89175251
Si       1.54787128       5.13096412       2.25760936
Si      -1.54787128       5.13096412       2.25760936
Si       1.56436948       5.35705734       5.29120662
Si      -1.56436948       5.35705734       5.29120662
Si       2.62313208       3.06960347       0.16486417
Si      -2.62313208       3.06960347       0.16486417
Si       5.20860613       1.72196356       7.05512976
Si      -5.20860613       1.72196356       7.05512976
Si       8.15363544       1.87432468       0.63924060
Si      -8.15363544       1.87432468       0.63924060
Si     -11.51397746       3.52263409       2.89376566
Si      11.51397746       3.52263409       2.89376566
Si       8.55549015       4.06688522       2.80235474
Si      -8.55549015       4.06688522       2.80235474
O       -0.00000000       4.61989229       2.31100001
O        2.16851963       5.12978205       3.78483762
O       -2.16851963       5.12978205       3.78483762
O        1.66510171       6.58428256       1.58508457
O       -1.66510171       6.58428256       1.58508457
O        2.40656793       3.93316168       1.54362916
O       -2.40656793       3.93316168       1.54362916
O        0.00000000       4.87426293       5.36427251
O        1.71935929       6.90978826       5.75203988
O       -1.71935929       6.90978826       5.75203988
O        2.46419001       4.36493093       6.21891019
O       -2.46419001       4.36493093       6.21891019
O        1.69984115       1.75682233       0.05227240
O       -1.69984115       1.75682233       0.05227240
O      -15.74160977       3.69616960       0.00669484
O       15.74160977       3.69616960       0.00669484
O        4.21832927       2.67079157       0.27482478
O       -4.21832927       2.67079157       0.27482478
O        6.53616366       1.67311654       0.69653414
O       -6.53616366       1.67311654       0.69653414
O        5.55237259       1.84434379       5.47401385
O       -5.55237259       1.84434379       5.47401385
O        8.74394252       2.11650242       6.42786093
O       -8.74394252       2.11650242       6.42786093
O      -11.43872217       4.34673751       1.47032940
O       11.43872217       4.34673751       1.47032940
O        8.55123386       3.31184684       1.33134562
O       -8.55123386       3.31184684       1.33134562
O      -12.61315456       4.03911984       3.94331392
O       12.61315456       4.03911984       3.94331392
O        7.33756252       3.62019037       3.74459548
O       -7.33756252       3.62019037       3.74459548
O        8.53015508       5.66842277       2.48318027
O       -8.53015508       5.66842277       2.48318027
O       -9.99442064       3.69228377       3.57358462
O        9.99442064       3.69228377       3.57358462
O        1.87745011       0.83749135       3.94723874
O       -1.87745011       0.83749135       3.94723874
O        7.90119683       5.68261128       6.33434508
O       -7.90119683       5.68261128       6.33434508
O        6.68517440       5.54320435       6.17993977
O       -6.68517440       5.54320435       6.17993977
O        4.68113002       6.51017289       2.06346621
O       -4.68113002       6.51017289       2.06346621
O       -0.00000000       1.79479639       3.65069226
4
Lattice="0.5829700000000001 1.841812 -3.136393 0.5829700000000001 -1.841812 -3.136393 -5.235979 0.0 -3.136393" Properties=species:S:1:pos:R:3 bader="8.858401 16.42793 7.356816 7.35685" energy=-27.96670459 pbc="T T T"
Sm      -2.03501950       0.00000000      -4.70458950
Cu       0.00000000       0.00000000       0.00000000
O       -0.62692631       0.00000000      -6.60603089
O       -3.44311269       0.00000000      -2.80314811
25
Lattice="8.939884 -0.10554899999999999 -0.000727 -0.113533 10.416386 2.035814 -0.000557 -0.00046199999999999995 4.067036" Properties=species:S:1:pos:R:3 bader="8.460384 8.322412 6.276341 8.434143 8.523703 8.361819 8.482684 8.66608 8.511044 6.54696 6.213695 7.367274 7.211866 7.169364 7.257103 7.375408 7.183947 7.216523 7.369337 7.12043 7.226276 7.093575 7.242509 7.240351 7.126773" energy=-210.37064004 pbc="T T T"
Ba       2.16839161       7.53906453       2.02612629
Ba       6.61054640       0.24745161       4.05978003
Mg       2.18788093      10.31319969       4.05811465
Nb       0.33994653       2.84707143       2.02505705
Nb       2.11817963       4.76754212       4.05927971
Nb       3.98061184       2.88007746       2.02678272
Nb       5.01355616       7.56415808       4.05839891
Nb       6.75383282       5.54915286       2.02555410
Nb       8.21345786       7.55637412       4.06021133
N        6.60955027       6.16644632       4.05902990
N        8.07945770       4.27224269       2.02511040
O        0.74320503       9.01225409       4.06338648
O        0.74402966       3.10910368       4.05857843
O        0.78480522       6.17677611       4.06037939
O        2.16550951       4.55256912       2.02563145
O        2.20855249       1.79318873       2.02466634
O        3.52635742       6.17131071       4.05881413
O        3.61871007       3.18384702       4.05928564
O        3.63567377       9.02459874       4.05567406
O        5.07517335       1.43269955       2.02726130
O        5.05191248       7.53653683       2.02558963
O        5.19887911       4.37000419       2.02589754
O        6.65411303       8.86852899       4.06043511
O        8.16596641       7.43997632       2.02724494
O        8.16093007       1.30551946       2.02423909
4
Lattice="-4.905263 5.205578 7.361628 4.905263 -5.205578 7.361628 4.905263 5.205578 -7.361628" Properties=species:S:1:pos:R:3 bader="6.89844 11.83734 17.632109 17.632109" energy=-6.10140632 pbc="T T T"
Mg       0.00000000       0.00000000       0.00000000
Zn       4.90526300       0.00000000       0.00000000
Cu       2.46506144       0.00000000       0.00000000
Cu       7.34546456       0.00000000      -0.00000000
52
Lattice="14.042259 0.0 0.0 0.0 5.695762 0.0 0.0 2.5785460000000002 8.866234" Properties=species:S:1:pos:R:3 bader="2.12746 2.12746 2.12746 2.12746 2.104723 2.104723 2.104723 2.104723 9.194317 9.194317 9.194317 9.194317 0.0 0.0 0.0 0.0 0.0 0.0 0.0 0.0 7.760491 7.760491 7.760491 7.760491 7.819711 7.819711 7.819711 7.819711 7.771089 7.771089 7.771089 7.771089 7.892438 7.892438 7.892438 7.892438 7.764501 7.764501 7.764494 7.764494 7.802086 7.802086 7.802052 7.802052 7.841984 7.841984 7.841947 7.841947 7.921243 7.921243 7.92124 7.92124" energy=-350.840273 pbc="T T T"
Li       3.51935520       0.75473936       0.92053675
Li      10.54048470       4.67168764       7.94569725
Li      10.52290380       7.51956864       7.94569725
Li       3.50177430       3.60262036       0.92053675
Li       6.11790332       5.08626712       2.01832724
Li      13.13903282       6.03592188       6.84790676
Li       7.92435568       3.18804088       6.84790676
Li       0.90322618       2.23838612       2.01832724
Th       5.11555283       4.82113528       5.48882835
Th      12.13668233       6.30105372       3.37740565
Th       8.92670617       3.45317272       3.37740565
Th       1.90557667       1.97325428       5.48882835
As       5.24997937       7.36100366       7.57015905
As      12.27110887       3.76118534       1.29607495
As       8.79227963       0.91330434       1.29607495
As       1.77115013       4.51312266       7.57015905
As       5.15673877       2.25148224       3.27901705
As      12.17786827       3.17494476       5.58721695
As       8.88552023       6.02282576       5.58721695
As       1.86439073       5.09936324       3.27901705
O        3.99534566       2.86342229       4.43958048
O       11.01647516       2.56300471       4.42665352
O       10.04691334       5.41088571       4.42665352
O        3.02578384       5.71130329       4.43958048
O        5.95873431       3.07781296       6.88477256
O       12.97986381       2.34861404       1.98146144
O        8.08352469       5.19649504       1.98146144
O        1.06239519       5.92569396       6.88477256
O        3.83216057       6.81552309       6.70758087
O       10.85329007       4.30666591       2.15865313
O       10.21009843       1.45878491       2.15865313
O        3.18896893       3.96764209       6.70758087
O        4.48904340       2.18881691       1.73638987
O       11.51017290       3.23761009       7.12984413
O        9.55321560       6.08549109       7.12984413
O        2.53208610       5.03669791       1.73638987
O        6.24529469       6.01937542       7.18860067
O       13.26642419       5.10281358       1.67763333
O        7.79696431       2.25493258       1.67763333
O        0.77583481       3.17149442       7.18860067
O        6.25877526       3.59291918       3.48921773
O       13.27990476       1.83350782       5.37701627
O        7.78348374       4.68138882       5.37701627
O        0.76235424       6.44080018       3.48921773
O        5.72797787       6.39334182       3.73619554
O       12.74910737       4.72884718       5.13003846
O        8.31428113       1.88096618       5.13003846
O        1.29315163       3.54546082       3.73619554
O        4.88225474       5.00615417       0.35293818
O       11.90338424       6.11603483       8.51329582
O        9.16000426       3.26815383       8.51329582
O        2.13887476       2.15827317       0.35293818
1
Lattice="1.784516 0.0 0.0 0.0 1.784516 0.0 0.0 0.0 3.089828" Properties=species:S:1:pos:R:3 bader=6.0 energy=-3.39040623 pbc="T T T"
O        0.00000000       0.00000000       0.00000000
6
Lattice="4.238024 0.0 0.0 0.0 4.238024 0.0 0.0 0.0 5.453468" Properties=species:S:1:pos:R:3 bader="9.486574 4.587614 4.686052 11.376075 11.376075 5.48761" energy=-49.22095161 pbc="T T T"
Pr       0.00000000       0.00000000       2.72673400
Si       2.11901200       2.11901200       3.93945440
Si       2.11901200       2.11901200       1.51401360
Mo       2.11901200       0.00000000       0.00000000
Mo       0.00000000       2.11901200       0.00000000
C        0.00000000       0.00000000       0.00000000
40
Lattice="6.438561 0.0 0.0 0.0 9.73424 0.0 0.0 7.7839849999999995 14.149938" Properties=species:S:1:pos:R:3 bader="8.213573 8.208085 8.208085 8.208085 8.210385 8.213573 8.188764 8.210373 8.188764 8.188774 8.210373 8.213573 8.208085 8.210385 8.188774 8.213573 10.863433 10.952432 10.863488 10.952425 10.952425 10.863488 10.863433 10.952432 7.344552 7.338154 7.345925 7.345925 7.338154 7.334675 7.334675 7.344552 7.338154 7.345925 7.334675 7.345925 7.334675 7.338154 7.344552 7.344552" energy=-155.8791601 pbc="T T T"
Rb       3.74730689       8.45588320       3.37958534
Rb       2.38235771      11.57153092       4.76308138
Rb       4.05620329       5.94669408       9.38685662
Rb       5.60163821       2.05470158       2.31188762
Rb       2.08827000       1.62312713       0.39196743
Rb       2.69125411       9.06234180      10.77035266
Rb       3.64606052       5.15564738       1.71159065
Rb       1.13101050       5.51511963       7.46693643
Rb       0.42678002       8.47058512       5.36337835
Rb       6.01178098       9.04763988       8.78655965
Rb       4.35029100      15.89509787      13.75797057
Rb       0.52802639       5.17034930       3.69538366
Rb       0.83692279      15.46352342      11.83805038
Rb       5.30755050      12.00310537       6.68300157
Rb       2.79250048      12.36257762      12.43834735
Rb       5.91053461      12.34787570      10.45455434
Zn       3.56064013       7.59617277       6.50819323
Zn       5.61921548       9.11809988      12.32942113
Zn       2.87792087       9.92205223       7.64174477
Zn       0.81934552       8.40012512       1.82051687
Zn       4.03862602       5.22610738       5.25445213
Zn       6.09720137      11.48816527      13.58316223
Zn       0.34135963       6.03005973       0.56677577
Zn       2.39993498      12.29211762       8.89548587
O        5.58135674      13.38592533      13.12273740
O        1.42420325      11.32998132       7.46484224
O        1.25810126       9.92626663       2.80061233
O        1.96117924      13.81825913       9.87558133
O        4.64348375      10.08023618      13.76006476
O        2.56706715       6.50309199       5.06730505
O        3.87149385      11.01513301       9.08263295
O        0.85720426       4.13229967       1.02720060
O        1.79507725       7.43798882       0.38987324
O        5.18045974       7.59195837      11.34932567
O        5.78634765       7.12314051       2.00766395
O        4.47738176       3.69996587       4.27435667
O        0.65221335      10.39508449      12.14227405
O        5.01435775       6.18824368       6.68509576
O        2.36207624       8.02429217       8.10216960
O        4.07648476       9.49393283       6.04776840
40
Lattice="6.012619 0.0 0.0 0.0 6.132181 0.0 0.0 0.0 26.680201" Properties=species:S:1:pos:R:3 bader="9.426217 9.426217 9.426217 9.426217 9.462624 9.462624 9.462624 9.462624 0.928317 0.928317 0.928317 0.928317 0.948548 0.948548 0.948548 0.948548 6.101565 6.101565 6.101565 6.101565 6.149223 6.149223 6.149223 6.149223 5.525305 5.525305 5.525305 5.525305 5.520811 5.520811 5.520811 5.520811 7.967083 7.967083 7.967083 7.967083 7.970307 7.970307 7.970307 7.970307" energy=-220.98065308 pbc="T T T"
La       4.49733078       6.03439111       2.41802662
La       1.49102128       0.09778989      24.26217438
La       1.49102128       3.16388039      15.75812712
La       4.49733078       2.96830061      10.92207388
La       1.48897699       2.95925564       2.57584001
La       4.49528649       3.17292536      24.10436099
La       4.49528649       0.10683486      15.91594051
La       1.48897699       6.02534614      10.76426049
Si       1.96812862       0.38822838       5.47627134
Si       4.97443812       5.74395262      21.20392966
Si       4.97443812       2.67786212      18.81637184
Si       1.96812862       3.45431888       7.86382916
Si       4.96375369       2.37583381       5.54537306
Si       1.95744419       3.75634719      21.13482794
Si       1.95744419       0.69025669      18.88547356
Si       4.96375369       5.44192431       7.79472744
As       4.48022488       2.99579118       3.33820007
As       1.47391538       3.13638982      23.34200093
As       1.47391538       0.07029932      16.67830057
As       4.48022488       6.06188168      10.00190043
As       1.47011541       6.00263254       3.25180958
As       4.47642491       0.12954846      23.42839142
As       4.47642491       3.19563896      16.59191008
As       1.47011541       2.93654204      10.08829092
As       2.81806642       4.31146901       0.05501457
As       5.82437592       1.82071199      26.62518643
As       5.82437592       4.88680249      13.39511507
As       2.81806642       1.24537851      13.28508593
As       3.25654869       1.80850282      26.63484466
As       0.25023919       4.32367818       0.04535634
As       0.25023919       1.25758768      13.29474416
As       3.25654869       4.87459332      13.38545684
As       1.32070183       2.65294094       5.70932289
As       4.32701133       3.47924006      20.97087811
As       4.32701133       0.41314956      19.04942339
As       1.32070183       5.71903144       7.63077761
As       4.33437678       0.09820075       5.60996582
As       1.32806728       6.03398025      21.07023518
As       1.32806728       2.96788975      18.95006632
As       4.33437678       3.16429125       7.73013468
10
Lattice="0.0 5.917477 5.917477 5.917477 0.0 5.917477 5.917477 5.917477 0.0" Properties=species:S:1:pos:R:3 bader="8.112454 8.112454 12.288756 3.582125 7.650702 7.650702 7.650702 7.650702 7.650702 7.650702" energy=-30.04481399 pbc="T T T"
Cs       8.87621550       8.87621550       8.87621550
Cs       2.95873850       2.95873850       2.95873850
In       5.91747700       5.91747700       5.91747700
Sb       0.00000000       0.00000000       0.00000000
Br       2.83393891       5.91747700       5.91747700
Br       5.91747700       5.91747700       2.83393891
Br       9.00101509       5.91747700       5.91747700
Br       5.91747700       2.83393891       5.91747700
Br       5.91747700       9.00101509       5.91747700
Br       5.91747700       5.91747700       9.00101509
13
Lattice="3.337714 4.2000000000000004e-05 0.0 -1.6688209999999999 2.890615 -8e-06 4e-06 -0.000101 38.109197" Properties=species:S:1:pos:R:3 bader="7.955821 6.260492 6.222695 11.520374 11.047398 10.923348 10.558001 6.5361 6.477499 6.469497 6.555043 6.732534 6.741198" energy=-83.50720978 pbc="T T T"
Mg      -0.16720983       2.10524784      32.81536640
Te       1.66887084       0.96343951       1.67973641
Te       1.66886790       0.96344101       5.47533621
Mo       0.00002437       1.92694051       3.57665713
Mo       0.00002421       1.92692279      17.89881744
W        1.66886846       0.96363518      10.74092207
W        1.66885661       0.96361458      25.05847117
Se       0.00002364       1.92717435      12.41635214
Se       1.66887070       0.96340962      16.23001837
Se       1.66887105       0.96341234      19.56769806
Se       0.00002161       1.92714565       9.06472448
S        0.00003347       1.92718595      26.58115957
S        0.00003315       1.92716512      23.53497713
10
Lattice="0.0 5.695374 5.695374 5.695374 0.0 5.695374 5.695374 5.695374 0.0" Properties=species:S:1:pos:R:3 bader="8.132726 8.132726 9.064414 10.737504 7.655438 7.655438 7.655438 7.655438 7.655438 7.655438" energy=-36.01891884 pbc="T T T"
Cs       8.54306100       8.54306100       8.54306100
Cs       2.84768700       2.84768700       2.84768700
Y        0.00000000       0.00000000       0.00000000
Au       5.69537400       5.69537400       5.69537400
Br       2.80932296       5.69537400       5.69537400
Br       5.69537400       5.69537400       2.80932296
Br       8.58142504       5.69537400       5.69537400
Br       5.69537400       2.80932296       5.69537400
Br       5.69537400       8.58142504       5.69537400
Br       5.69537400       5.69537400       8.58142504
4
Lattice="0.0 3.400455 3.400455 3.400455 0.0 3.400455 3.400455 3.400455 0.0" Properties=species:S:1:pos:R:3 bader="2.202032 2.202032 7.951374 15.644563" energy=-12.08383181 pbc="T T T"
Li       1.70022750       1.70022750       1.70022750
Li       5.10068250       5.10068250       5.10068250
Tm       0.00000000       0.00000000       0.00000000
In       3.40045500       3.40045500       3.40045500
10
Lattice="0.0 0.0 5.73557 5.859806 0.0 0.0 2.929903 6.588139 0.0" Properties=species:S:1:pos:R:3 bader="8.407486 8.407486 2.070781 2.070781 7.803905 7.803905 7.862696 7.862717 7.855133 7.855111" energy=-53.78559174 pbc="T T T"
Sr       5.85980600       1.33025067       4.30167750
Sr       2.92990300       5.25788833       1.43389250
Bi       2.92990300       1.02276905       1.43389250
Bi       5.85980600       5.56536995       4.30167750
Br       2.92990300       3.35518108       4.30167750
Br       5.85980600       3.23295792       1.43389250
O        4.30035341       0.00000000       2.86778500
O        1.55945259       0.00000000       0.00000000
O        1.55945259       0.00000000       2.86778500
O        4.30035341       0.00000000       0.00000000
28
Lattice="3.083298 -6.713288 0.0 3.083298 6.713288 0.0 0.0 0.0 9.327696" Properties=species:S:1:pos:R:3 bader="10.270182 10.253619 10.270182 10.253619 10.253619 10.253619 6.107851 4.169782 4.169782 6.107851 4.735587 4.812537 4.812537 4.169782 4.735587 4.169782 6.547774 6.537216 6.52853 6.537216 6.547774 6.537216 6.52853 6.547774 6.52853 6.537216 6.547774 6.52853" energy=-160.5611732 pbc="T T T"
Ag       3.55498093      -0.00000000       0.41210694
Ag       2.53915140      -4.88440038       5.65560595
Ag       2.61161507      -0.00000000       5.07595494
Ag       3.62744460       4.88440038       0.99175795
Ag       2.53915140       4.88440038       5.65560595
Ag       3.62744460      -4.88440038       0.99175795
N        1.12098232      -0.00000000       7.77426151
N        3.90056313       2.66061030       8.17253547
N        2.26603287      -2.66061030       3.50868747
N        5.04561368      -0.00000000       3.11041351
N        5.25568494       0.00000000       1.94093497
N        4.85873499      -0.00000000       4.28603900
N        1.30786101      -0.00000000       8.94988700
N        2.26603287       2.66061030       3.50868747
N        0.91091106       0.00000000       6.60478297
N        3.90056313      -2.66061030       8.17253547
O        3.53624989       2.68522793       0.07668299
O        2.03045040      -1.52406407       2.97871577
O        2.12645813       3.72486785       2.86304301
O        2.03045040       1.52406407       2.97871577
O        2.63034611      -2.68522793       4.74053099
O        4.13614560      -1.52406407       7.64256377
O        4.04013787      -3.72486785       7.52689101
O        3.53624989      -2.68522793       0.07668299
O        4.04013787       3.72486785       7.52689101
O        4.13614560       1.52406407       7.64256377
O        2.63034611       2.68522793       4.74053099
O        2.12645813      -3.72486785       2.86304301
2
Lattice="0.0 0.0 -2.901479 -1.47702 -2.558274 0.0 -2.95404 0.0 0.0" Properties=species:S:1:pos:R:3 bader="9.387087 6.612913" energy=-22.4832201 pbc="T T T"
Ta      -2.95404000      -1.70551429      -1.45073950
N        0.00000000       0.00000000       0.00000000
12