26
Lattice="5.453674 -9.44604 0.0 5.453674 9.44604 0.0 0.0 0.0 4.796782" Properties=species:S:1:pos:R:3 bader="12.132564 12.130553 12.131126 12.132865 12.130984 12.132053 11.283263 11.285296 11.282536 11.283303 11.285352 11.282632 11.291348 11.292605 11.292031 11.291913 11.292225 11.292051 11.220572 11.221077 11.221935 11.220791 11.221336 11.222248 11.213782 11.213567" energy=-84.88789887 pbc="T T T"
In       7.54039147       0.99548037       1.19919550
In       6.27504093       6.03243006       1.19919550
In       2.54558960       2.41812956       1.19919550
In       3.36695653      -0.99548037       3.59758650
In       4.63230707      -6.03243006       3.59758650
In       8.36175840      -2.41812956       3.59758650
Au       5.10265373      -7.73965066       1.19919550
Au       9.60508155      -1.15718713       1.19919550
Au       1.65328673      -0.54920221       1.19919550
Au       5.80469427       7.73965066       3.59758650
Au       1.30226645       1.15718713       3.59758650
Au       9.25406127       0.54920221       3.59758650
Au       8.39183541       3.87024095       1.19919550
Au       3.35970315       5.33242182       1.19919550
Au       4.60948344       0.24337722       1.19919550
Au       2.51551259      -3.87024095       3.59758650
Au       7.54764485      -5.33242182       3.59758650
Au       6.29786456      -0.24337722       3.59758650
Au       5.89232391      -4.83202730       1.19919550
Au       6.69217064      -1.92712440       1.19919550
Au       3.77652745      -2.68688829       1.19919550
Au       5.01502409       4.83202730       3.59758650
Au       4.21517736       1.92712440       3.59758650
Au       7.13082055       2.68688829       3.59758650
Au       5.45367400      -3.14868630       3.59758650
Au       5.45367400       3.14868630       1.19919550
13
Lattice="3.929045 0.0 0.0 0.0 3.929045 0.0 0.0 0.0 15.185427" Properties=species:S:1:pos:R:3 bader="8.134492 8.134488 8.904841 8.333197 8.333197 7.832913 7.222239 7.222239 7.222239 7.222239 7.082995 7.082995 7.271927" energy=-97.61055459 pbc="T T T"
Rb       1.96452250       1.96452250       5.56454787
Rb       1.96452250       1.96452250       9.62087913
La       1.96452250       1.96452250       0.00000000
Nb       0.00000000       0.00000000       2.32215550
Nb       0.00000000       0.00000000      12.86327150
Cl       0.00000000       0.00000000       7.59271350
O        0.00000000       1.96452250       1.88370666
O        0.00000000       1.96452250      13.30172034
O        1.96452250       0.00000000       1.88370666
O        1.96452250       0.00000000      13.30172034
O        0.00000000       0.00000000       4.13098282
O        0.00000000       0.00000000      11.05444418
O        0.00000000       0.00000000       0.00000000
20
Lattice="3.844194 0.0 0.0 0.0 10.332235 0.0 0.0 0.0 10.455265" Properties=species:S:1:pos:R:3 bader="9.633832 9.633832 9.633832 9.633832 9.862799 9.862799 9.862799 9.862799 9.746491 9.746491 9.746491 9.746491 6.884461 6.884461 6.884461 6.884461 6.872418 6.872418 6.872418 6.872418" energy=-136.34364098 pbc="T T T"
Sc       0.96104850       1.36795692       0.50860682
Sc       2.88314550       8.96427808       9.94665818
Sc       0.96104850       3.79816058       5.73623932
Sc       2.88314550       6.53407442       4.71902568
Sc       0.96104850       0.65758476       3.89082232
Sc       2.88314550       9.67465024       6.56444268
Sc       0.96104850       4.50853274       9.11845482
Sc       2.88314550       5.82370226       1.33681018
Sc       0.96104850       8.22925322       2.33276827
Sc       2.88314550       2.10298178       8.12249673
Sc       0.96104850       7.26909928       7.56040077
Sc       2.88314550       3.06313572       2.89486423
As       0.96104850       5.11079871       3.27351211
As       2.88314550       5.22143629       7.18175289
As       0.96104850       0.05531879       8.50114461
As       2.88314550      10.27691621       1.95412039
As       0.96104850       8.48216567       5.08653870
As       2.88314550       1.85006933       5.36872630
As       0.96104850       7.01618683      10.31417120
As       2.88314550       3.31604817       0.14109380
20
Lattice="5.7130019999999995 0.0 0.0 0.0 5.592479 0.0 0.0 5.606204 7.939192" Properties=species:S:1:pos:R:3 bader="8.917051 8.917049 8.917051 8.917049 6.239313 6.239313 13.566882 13.566882 7.22189 7.22189 7.22189 7.22189 7.230535 7.230524 7.230491 7.23048 7.227466 7.227429 7.227481 7.227444" energy=-147.72849377 pbc="T T T"
La       5.43777242       5.53653706       1.98928364
La       2.58127142       2.85904394       1.98031236
La       0.27522958       5.66214594       5.94990836
La       3.13173058       8.33963906       5.95887964
Mg       0.00000000       2.79623950       0.00000000
Mg       2.85650100       5.59934150       3.96959600
Rh       2.85650100       0.00000000       0.00000000
Rh       0.00000000       2.80310200       3.96959600
O        2.99212767       6.08216748       1.96352097
O        0.13562667       2.31341352       2.00607503
O        2.72087433       5.11651552       5.97567103
O        5.57737533       8.88526948       5.93311697
O        4.54274496       6.76828582       4.34090407
O        1.68624396       7.23349918       7.56788393
O        1.17025704       4.43039718       3.59828793
O        4.02675804       3.96518382       0.37130807
O        1.20141004       4.46558943       0.37233223
O        4.05791104       3.92999157       3.59726377
O        4.51159196       6.73309357       7.56685977
O        1.65509096       7.26869143       4.34192823
60
Lattice="8.873338 0.0 0.0 -0.6540929999999999 8.86816 0.0 -1.603203 -4.405368 7.845721" Properties=species:S:1:pos:R:3 bader="6.109373 6.109373 6.094711 6.103427 6.103427 0.0 0.0 0.407207 0.0 0.0 0.0 0.0 0.0 0.0 0.0 0.0 0.0 0.0 0.0 0.0 0.0 0.0 0.0 0.0 0.0 0.0 0.0 0.0 0.0 0.0 0.0 0.0 0.0 0.0 0.0 0.0 7.840549 7.840549 7.842122 7.842122 8.060594 8.060594 7.841373 7.841371 8.074807 8.074866 7.714523 7.714523 8.031544 8.031544 8.019474 8.019471 8.029144 8.029139 8.027035 8.026962 8.03328 8.033279 8.021808 8.021808" energy=-286.00199092 pbc="T T T"
Na       7.32063676       2.88212584       0.88825330
Na      -0.70459476       1.58066616       6.95746770
Na       0.00000000       0.00000000       0.00000000
Na       4.69489682       4.20072752       2.78188083
Na       1.92114518       0.26206448       5.06384017
H        3.57140094      -1.34162239       5.83327003
H        3.04464106       5.80441439       2.01245097
H       -0.32704650       4.43408000       0.00000000
H        1.07044306       4.12250512       1.14716210
H        5.54559894       0.34028688       6.69855890
H        5.73195253      -2.62342719       5.86087912
H        0.88408947       7.08621919       1.98484188
H        6.93761500      -1.81650865       6.43525651
H       -0.32157300       6.27930065       1.41046449
H        6.85230354       5.90190680       2.93337386
H       -0.23626154      -1.43911480       4.91234714
H        6.75086507       5.48803918       1.41412844
H       -0.13482307      -1.02524718       6.43159256
H        7.27074226       0.25655349       2.39960592
H       -0.65470026       4.20623851       5.44611508
H        7.94775215       1.44768343       3.09591366
H       -1.33171015       3.01510857       4.74980734
H        1.87977019       2.88143294       3.50021936
H        4.73627181       1.58135906       4.34550164
H        1.16922633       1.73771938       2.72227689
H        5.44681567       2.72507262       5.12344411
H        1.90995220       1.95441861       7.71942843
H        4.70608980       2.50837339       0.12629257
H        1.81675622       2.76053456       6.37577810
H        4.79928578       1.70225744       1.46994290
H        3.87194104       3.85269754       6.94290604
H        2.74410096       0.61009446       0.90281496
H        5.47473430       7.75720127       0.56947381
H        1.14130770      -3.29440927       7.27624719
I        2.05578905       5.54691861       4.63204307
I        4.56025295      -1.08412661       3.21367793
O        2.23494398       4.56345548       3.06486814
O        4.38109802      -0.10066348       4.78085286
O        0.23835132       5.52490276       4.82088173
O        6.37769068      -1.06211076       3.02483927
O        2.81448096      -1.93170964       6.12409521
O        3.80156104       6.39450164       1.72162579
O        4.06309492       0.23344913       2.06200455
O        2.55294708       4.22934287       5.78371645
O        4.03810814       6.09785774       4.37524477
O        2.57793386      -1.63506574       3.47047623
O        5.91007081       0.60171071       7.56348688
O        0.70597119       3.86108129       0.28223412
O        6.30378693      -2.52713775       6.65906354
O        0.31225507       6.98992975       1.18665746
O        6.90275002       5.13721938       2.32653872
O       -0.28670802      -0.67442738       5.51918228
O        7.88287480       1.02909515       2.22170420
O       -1.26683280       3.43369685       5.62401680
O        1.45321074       1.98565408       3.61489241
O        5.16283126       2.47713792       4.23082859
O        1.59592551       1.88054348       6.78918483
O        5.02011649       2.58224852       1.05653617
O        4.46997531       3.59151504       7.68027828
O        2.14606669       0.87127696       0.16544272
5
Lattice="4.052674 0.0 0.0 0.0 4.052674 0.0 0.0 0.0 4.052674" Properties=species:S:1:pos:R:3 bader="8.290124 2.116933 7.864313 7.864313 7.864313" energy=-26.89066015 pbc="T T T"
Ba       0.00000000       0.00000000       0.00000000
Li       2.02633700       2.02633700       2.02633700
F        0.00000000       2.02633700       2.02633700
F        2.02633700       2.02633700       0.00000000
F        2.02633700       0.00000000       2.02633700
20
Lattice="8.125172 0.0 0.0 0.0 7.169792 0.0 0.0 6.958117 10.43038" Properties=species:S:1:pos:R:3 bader="8.533714 8.533714 8.533714 8.533714 4.726975 4.726975 4.718445 4.718445 6.566629 6.566629 6.566628 6.566628 6.578633 6.578633 6.578641 6.578641 6.598315 6.598315 6.598306 6.598306" energy=-91.50580795 pbc="T T T"
Ba       7.33363399      10.30581333       7.84150753
Ba       3.27104799       7.30115417       7.80406247
Ba       0.79153801       3.82209567       2.58887247
Ba       4.85412401       6.82675483       2.62631753
P        7.24780780       6.70868519       5.84576905
P        3.18522180      10.89828231       9.79980095
P        0.87736420       7.41922381       4.58461095
P        4.93995020       3.22962669       0.63057905
Se       4.17451024       3.01367813       2.68365333
Se       0.11192424       7.63517237       2.53153667
Se       3.95066176      11.11423087       7.74672667
Se       8.01324776       6.49273663       7.89884333
Se       5.68763665       8.32341296      10.13136187
Se       1.62505065       9.28355454       5.51420813
Se       2.43753535       5.80449604       0.29901813
Se       6.50012135       4.84435446       4.91617187
Se       6.45065530       4.83005806       0.43108761
Se       2.38806930       5.81879244       4.78410239
Se       1.67451670       9.29785094       9.99929239
Se       5.73710270       8.30911656       5.64627761
22
Lattice="9.489682 0.0 0.0 0.0 9.489682 0.0 0.0 0.0 9.936965" Properties=species:S:1:pos:R:3 bader="12.445311 12.445523 12.445311 12.445311 12.445523 12.445311 12.445523 12.445523 12.488473 12.479555 12.479555 12.488473 6.933257 6.933257 7.578585 7.578585 7.579939 7.579939 7.579939 7.579939 7.578585 7.578585" energy=-61.81731382 pbc="T T T"
Tl       6.63093428       8.52302503       4.96848250
Tl       2.85874772       0.96665697       4.96848250
Tl       5.71149797       7.60358872       0.00000000
Tl       0.96665697       6.63093428       4.96848250
Tl       8.52302503       2.85874772       4.96848250
Tl       1.88609328       5.71149797       0.00000000
Tl       7.60358872       3.77818403       0.00000000
Tl       3.77818403       1.88609328       0.00000000
Tl       0.00000000       0.00000000       7.87490564
Tl       4.74484100       4.74484100       7.03054186
Tl       0.00000000       0.00000000       2.06205936
Tl       4.74484100       4.74484100       2.90642314
S        0.00000000       0.00000000       4.96848250
S        4.74484100       4.74484100       0.00000000
I        1.58669381       3.15814719       7.45272375
I        6.33153481       1.58669381       7.45272375
I        3.15814719       7.90298819       7.45272375
I        7.90298819       6.33153481       7.45272375
I        7.90298819       6.33153481       2.48424125
I        3.15814719       7.90298819       2.48424125
I        6.33153481       1.58669381       2.48424125
I        1.58669381       3.15814719       2.48424125
6
Lattice="0.0 3.777606 3.777606 3.777606 0.0 3.777606 3.777606 3.777606 0.0" Properties=species:S:1:pos:R:3 bader="7.315058 7.315095 9.846088 9.846739 9.846739 9.830283" energy=-49.54379712 pbc="T T T"
Er       1.88880300       1.88880300       1.88880300
Er       0.00000000       0.00000000       0.00000000
Ir       2.83320450       4.72200750       2.83320450
Ir       2.83320450       2.83320450       4.72200750
Ir       4.72200750       2.83320450       2.83320450
Ir       4.72200750       4.72200750       4.72200750
20
Lattice="5.988405 5.687472 0.0 -5.988405 5.687472 0.0 0.0 2.975659 5.090613" Properties=species:S:1:pos:R:3 bader="9.57393 9.573928 9.573915 9.573915 9.366067 9.366068 9.366098 9.3661 9.126994 9.126884 14.466082 14.466082 14.466086 14.466085 14.368009 14.368022 14.317129 14.317231 14.375676 14.375705" energy=-119.47539482 pbc="T T T"
Pr       1.63549329      10.63350637       3.89546942
Pr       1.63549329       5.20492613       3.74045008
Pr      -1.63549329       3.71709663       1.19514358
Pr      -1.63549329       9.14567687       1.35016292
Co      -1.65228478       6.35655193       3.12718393
Co      -1.65228478       9.48188057       4.50873557
Co       1.65228478       7.99405107       1.96342907
Co       1.65228478       4.86872243       0.58187743
Co      -5.95685808       7.91921625       3.81795975
Co       5.95684611       6.43138675       1.27265325
Ge      -1.14040191       4.33069408       4.24985754
Ge      -1.14040191      11.50773842       3.38606196
Ge       1.14040191      10.01990892       0.84075546
Ge       1.14040191       2.84286458       1.70455104
Ge      -3.32031906       7.91921625       3.81795975
Ge       3.32031906       6.43138675       1.27265325
Ge       0.06227941       7.91921625       3.81795975
Ge      -0.06227941       6.43138675       1.27265325
Ge       3.22264817       7.91921625       3.81795975
Ge      -3.22264817       6.43138675       1.27265325
4
Lattice="-4.89153 5.476511 7.725781 4.89153 -5.476511 7.725781 4.89153 5.476511 -7.725781" Properties=species:S:1:pos:R:3 bader="9.170715 9.170722 12.802589 11.855973" energy=-18.322978 pbc="T T T"
Ti       2.20702899      -0.00000000       0.00000000
Ti       7.57603101      -0.00000000       0.00000000
Mo       0.00000000       0.00000000       0.00000000
Au       4.89153000       0.00000000       0.00000000
4
Lattice="0.0 3.234384 3.234384 3.234384 0.0 3.234384 3.234384 3.234384 0.0" Properties=species:S:1:pos:R:3 bader="7.470138 12.832954 15.847943 15.848964" energy=-25.63421249 pbc="T T T"
Dy       3.23438400       3.23438400       3.23438400
Ga       0.00000000       0.00000000       0.00000000
Rh       1.61719200       1.61719200       1.61719200
Rh       4.85157600       4.85157600       4.85157600
96
Lattice="7.591485 0.0 0.0 0.0 12.22557 0.0 0.0 4.895109 12.879108" Properties=species:S:1:pos:R:3 bader="1.595055 1.595055 1.595055 1.595055 1.008285 1.008285 1.008285 1.008285 1.376931 1.376931 1.376931 1.376931 1.37907 1.37907 1.37907 1.37907 1.003325 1.003325 1.003325 1.003325 1.58638 1.58638 1.58638 1.58638 1.927981 1.87349 1.87349 1.87349 1.949264 1.949264 1.949264 1.949264 1.866818 1.866818 1.866818 1.866818 1.927981 1.927981 1.927981 1.87349 2.011373 2.011373 2.011373 2.011373 2.07067 2.07067 2.07067 2.07067 1.975287 1.975287 1.975287 1.975287 2.090598 2.090598 2.090598 2.090598 2.087395 2.087404 2.087404 2.087395 1.993934 1.993934 1.993934 2.051601 2.075177 2.075177 2.075177 2.075177 2.022409 2.022409 2.022409 2.022409 2.074466 2.074466 2.074465 2.074465 2.05185 2.05185 2.05185 2.05185 2.070434 2.070434 2.070434 2.070434 2.051601 2.051601 2.051601 1.993934 7.93132 7.93132 7.93132 7.93132 7.926885 7.926885 7.926881 7.926881" energy=-456.32429989 pbc="T T T"
B        7.01680199       4.86563750       2.70975144
B        3.22105949       6.14225650      10.16935656
B        0.57468301      12.25504150      10.16935656
B        4.37042551      10.97842250       2.70975144
B        5.52403516       5.54614382       3.41117342
B        1.72829266       5.46175018       9.46793458
B        2.06744984      11.57453518       9.46793458
B        5.86319234      11.65892882       3.41117342
B        6.07573874       6.62128840       4.71720513
B        2.27999624       4.38660560       8.16190287
B        1.51574626      10.49939060       8.16190287
B        5.31148876      12.73407340       4.71720513
B        7.49031328       7.90394790       4.30851239
B        3.69457078      15.32951610       8.57059561
B        0.10117172       9.21673110       8.57059561
B        3.89691422       1.79116290       4.30851239
B        0.52045703       7.91622689       2.64298615
B        4.31619953      15.31723711      10.23612185
B        7.07102797       9.20445211      10.23612185
B        3.27528547       1.80344189       2.64298615
B        0.86707664       6.20698736       2.26955641
B        4.66281914       4.80090664      10.60955159
B        6.72440836      10.91369164      10.60955159
B        2.92866586      12.31977236       2.26955641
B        3.00615215      11.36488316       3.74364760
B        2.97097320       6.02214538       8.40858931
B        0.82476930      12.13493038       8.40858931
B        4.62051180      11.09853362       4.47051869
B        0.18555108       6.33367651       5.02565977
B        3.98129358       4.67421749       7.85344823
B        7.40593392      10.78700249       7.85344823
B        3.61019142      12.44646151       5.02565977
B        1.33484117       6.95244282       3.82148893
B        5.13058367       4.05545118       9.05761907
B        6.25664383      10.16823618       9.05761907
B        2.46090133      13.06522782       3.82148893
B        0.78959035       5.25209816       3.74364760
B        4.58533285       5.75579584       9.13546040
B        6.80189465      11.86858084       9.13546040
B        6.76671570       4.98574862       4.47051869
H        6.09558288       5.67686493       2.19291284
H        2.29984038       5.33102907      10.68619516
H        1.49590212      11.44381407      10.68619516
H        5.29164462      11.78964993       2.19291284
H        4.42191096       5.13976811       3.22352482
H        0.62616846       5.86812589       9.65558318
H        3.16957404      11.98091089       9.65558318
H        6.96531654      11.25255311       3.22352482
H        5.44852266       6.87531564       3.56735837
H        1.65278016       4.13257836       9.31174963
H        2.14296234      10.24536336       9.31174963
H        5.93870484      12.98810064       3.56735837
H        5.28923812       6.93222635       5.55629189
H        1.49349562       4.07566765       7.32281611
H        2.30224688      10.18845265       7.32281611
H        6.09798938      13.04501135       5.55629189
H        7.50801662       8.91727646       4.93423098
H        3.71227412      14.31618754       7.94487702
H        0.08346838       8.20340254       7.94487702
H        3.87921088       2.80449146       4.93423098
H        6.91178139       8.23215149       3.15584511
H        3.11603889      15.00131251       9.72326289
H        0.67970361       8.88852751       9.72326289
H        2.18903507      10.50075605       3.83564307
H        0.89423138       8.84664881       2.00374450
H        4.68997388      14.38681519      10.87536350
H        6.69725362       8.27403019      10.87536350
H        2.90151112       2.73386381       2.00374450
H        7.55754347       7.04451697       1.76585450
H        3.76180097      16.18894703      11.11325350
H        0.03394153      10.07616203      11.11325350
H        3.82968403       0.93173197       1.76585450
H        6.57345168       4.03890538       5.16797391
H        2.77770918       6.96898862       7.71113409
H        1.01803332      13.08177362       7.71113409
H        4.81377582      10.15169038       5.16797391
H        0.50385445       6.35937740       6.17484969
H        4.29959695       4.64851660       6.70425831
H        7.08763055      10.76130160       6.70425831
H        3.29188805      12.47216240       6.17484969
H        2.46098483       7.20490841       4.11888041
H        6.25672733       3.80298559       8.76022759
H        5.13050017       9.91577059       8.76022759
H        1.33475767      13.31769341       4.11888041
H        1.60670743       4.38797105       3.83564307
H        5.40244993       6.61992295       9.04346493
H        5.98477757      12.73270795       9.04346493
H        4.47544611       2.11936649       3.15584511
Br       6.95688999       3.23690972       1.63055947
Br       3.16114749       7.77098428      11.24854853
Br       0.63459501      13.88376928      11.24854853
Br       4.43033751       9.34969472       1.63055947
Br       2.07217934       5.75898446       0.79386822
Br       5.86792184       5.24890954      12.08523978
Br       5.51930566      11.36169454      12.08523978
Br       1.72356316      11.87176946       0.79386822
9
Lattice="-1.935922 2.733256 5.737779 1.935922 -2.733256 5.737779 1.935922 2.733256 -5.737779" Properties=species:S:1:pos:R:3 bader="9.782975 9.782968 11.328215 7.187339 7.178032 7.18734 7.187353 7.178349 7.187429" energy=-84.0710847 pbc="T T T"
Ce       1.93592200       0.00000000       1.90745578
Ce       0.00000000       2.73325600       3.83032322
U        0.00000000       2.73325600       0.00000000
O       -0.00000000       1.39012307       1.83740897
O        1.93592200       1.45291143      -0.00000000
O        0.00000194       4.07638620       1.83740323
O        1.93592006      -1.34313020       3.90037577
O       -0.00000000       1.28034457       5.73777900
O        1.93592200       1.34313293       3.90037003
14
Lattice="0.0 5.378568 5.378568 5.378568 0.0 5.378568 5.378568 5.378568 0.0" Properties=species:S:1:pos:R:3 bader="10.828494 10.8285 11.695194 11.695194 11.695194 11.648141 6.951251 6.951587 6.951924 6.949878 6.951924 6.951587 6.951251 6.949878" energy=-69.9391635 pbc="T T T"
Cr       2.68928400       2.68928400       2.68928400
Cr       0.00000000       0.00000000       0.00000000
In       6.72321000       4.03392600       4.03392600
In       4.03392600       6.72321000       4.03392600
In       4.03392600       4.03392600       6.72321000
In       6.72321000       6.72321000       6.72321000
S        4.06702571       6.69011029       6.69011029
S        6.69011029       4.06702571       6.69011029
S        6.69011029       6.69011029       4.06702571
S        4.06702571       4.06702571       4.06702571
S        9.37939429       6.75630971       6.75630971
S        6.75630971       9.37939429       6.75630971
S        6.75630971       6.75630971       9.37939429
S        9.37939429       9.37939429       9.37939429
28
Lattice="12.86928 0.0 0.0 0.0 8.703913 0.0 0.0 3.668345 8.135865" Properties=species:S:1:pos:R:3 bader="8.707798 8.707798 8.707798 8.707798 8.679015 8.679015 8.679015 8.679015 8.709495 8.709495 8.709488 8.709488 13.469704 13.467741 13.467741 13.469704 6.486921 6.486921 6.486921 6.486921 6.443537 6.443537 6.443729 6.443729 6.504415 6.504415 6.504422 6.504422" energy=-128.51179245 pbc="T T T"
Ba      11.97652518       9.63369630       5.94339583
Ba       5.54188518       7.09051820       2.19246917
Ba       0.89275482       2.73856170       2.19246917
Ba       7.32739482       5.28173980       5.94339583
Ba      10.21450197       3.01404880       0.46877227
Ba       3.77986197       5.00625270       7.66709273
Ba       2.65477803       9.35820920       7.66709273
Ba       9.08941803       7.36600530       0.46877227
Ba       4.30374462      10.47430288       4.08186924
Ba      10.73838462       6.24991162       4.05399576
Ba       8.56553538       1.89795512       4.05399576
Ba       2.13089538       6.12234638       4.08186924
Sn       0.08043300       8.10515928       1.34760841
Sn       6.51507300       8.61905522       6.78825659
Sn      12.78884700       4.26709872       6.78825659
Sn       6.35420700       3.75320278       1.34760841
P       10.33377445       3.85671463       6.14889964
P        3.89913445       4.16358687       1.98696536
P        2.53550555       8.51554337       1.98696536
P        8.97014555       8.20867113       6.14889964
P        0.39710737       6.73735327       6.84666397
P        6.83174737       1.28294823       1.28920103
P       12.47217263       5.63490473       1.28920103
P        6.03753263      11.08930977       6.84666397
P        8.13709131       4.99414361       2.70836437
P        1.70245131       3.02615789       5.42750063
P        4.73218869       7.37811439       5.42750063
P       11.16682869       9.34610011       2.70836437
2
Lattice="-3.11688 -3.11688 0.0 -3.11688 0.0 -3.11688 0.0 -3.11688 -3.11688" Properties=species:S:1:pos:R:3 bader="0.0 8.0" energy=-8.19357291 pbc="T T T"
Al       0.00000000       0.00000000       0.00000000
Sb      -4.67532000      -4.67532000      -4.67532000
68
Lattice="-6.118375 6.118375 6.118375 6.118375 -6.118375 6.118375 6.118375 6.118375 -6.118375" Properties=species:S:1:pos:R:3 bader="11.741734 11.741734 11.741734 11.741734 11.741734 11.741734 11.741734 11.741734 11.741734 11.741734 11.741734 11.741734 0.0 0.0 0.0 0.0 0.0 0.0 0.0 0.0 7.560898 7.563955 7.568879 7.565093 7.561277 7.56426 7.563839 7.564229 7.568821 7.564073 7.564935 7.56131 7.563683 7.568821 7.561277 7.563683 7.568879 7.564111 7.568821 7.568879 7.568879 7.560865 7.564111 7.564015 7.561277 7.563839 7.568821 7.564073 7.560898 7.564726 7.563955 7.564224 7.564438 7.563683 7.56131 7.561277 7.568821 7.568879 7.563683 7.568821 7.564111 7.560898 7.568879 7.564111 7.560865 7.564229 7.564914 7.560898" energy=-397.68153376 pbc="T T T"
Ge       9.17756250       1.52959375       0.00000000
Ge      -3.05918750       4.58878125       6.11837500
Ge       0.00000000       3.05918750       4.58878125
Ge       1.52959375       0.00000000       9.17756250
Ge       0.00000000       9.17756250       1.52959375
Ge       4.58878125       0.00000000       3.05918750
Ge       1.52959375       6.11837500       3.05918750
Ge       4.58878125       6.11837500      -3.05918750
Ge       6.11837500      -3.05918750       4.58878125
Ge       6.11837500       3.05918750       1.52959375
Ge       3.05918750       1.52959375       6.11837500
Ge       3.05918750       4.58878125       0.00000000
Te       3.05918750       3.05918750       3.05918750
Te       0.00000000       6.11837500       0.00000000
Te       6.11837500       0.00000000       0.00000000
Te       0.00000000       0.00000000       6.11837500
Te       3.05918750       3.05918750      -3.05918750
Te       3.05918750      -3.05918750       3.05918750
Te      -3.05918750       3.05918750       3.05918750
Te       0.00000000       0.00000000       0.00000000
O        7.36609521       2.47791740       2.65411436
O       -2.47791740       3.46426064       7.36609521
O        9.58263564      -1.24772021       2.47791740
O        4.87065479       3.64045760       2.65411436
O        0.58127010       7.92984229       0.40507314
O        3.64045760       2.65411436       4.87065479
O       -0.58127010       1.81146729       5.71330186
O        2.65411436       4.87065479       3.64045760
O        0.58127010       4.30690771       5.71330186
O        4.30690771       6.52344814       5.53710490
O        6.52344814       5.53710490       4.30690771
O        0.40507314       0.58127010       7.92984229
O        1.81146729       5.71330186      -0.58127010
O        5.71330186       0.58127010       4.30690771
O        7.92984229       0.40507314       0.58127010
O        5.71330186      -0.58127010       1.81146729
O        4.30690771       5.71330186       0.58127010
O        7.36609521      -2.47791740       3.46426064
O       -1.24772021       2.47791740       9.58263564
O        5.53710490       1.81146729       0.40507314
O        2.47791740       9.58263564      -1.24772021
O        2.65411436       7.36609521       2.47791740
O        3.46426064       7.36609521      -2.47791740
O        5.53710490       4.30690771       6.52344814
O       -1.24772021       3.64045760       3.46426064
O        8.59629240       2.65411436      -1.24772021
O       -3.46426064       7.36609521       3.64045760
O        1.24772021       2.47791740       3.46426064
O        5.53710490      -1.81146729       5.71330186
O        2.47791740       3.46426064       1.24772021
O        6.69964510       4.30690771       0.40507314
O        3.46426064       1.24772021       2.47791740
O        0.58127010       1.81146729      -0.40507314
O        2.65411436      -1.24772021       8.59629240
O        3.46426064      -1.24772021       3.64045760
O        3.64045760       3.46426064      -1.24772021
O        3.64045760      -3.46426064       7.36609521
O        7.36609521       3.64045760      -3.46426064
O       -1.24772021       8.59629240       2.65411436
O        1.81146729       0.40507314       5.53710490
O        0.40507314       6.69964510       4.30690771
O       -1.81146729       5.71330186       5.53710490
O        0.40507314       5.53710490       1.81146729
O        4.30690771       0.40507314       6.69964510
O        5.71330186       5.53710490      -1.81146729
O       -0.40507314       0.58127010       1.81146729
O        1.81146729      -0.40507314       0.58127010